 Q-Chem 6.0, Q-Chem, Inc., Pleasanton, CA (2022)
 Q-Chem 6.0.1 for Intel X86 EM64T Linux

User input:
--------------------------------------------------------------
$comment
No symmetry
$end

$molecule
0 1
C                  0.00012073   -0.89181688    0.02663591
H                  0.57370482   -1.70648600    0.93757727
H                  0.69759798   -0.94421228   -1.12815611
H                 -1.26970955   -1.29082115   -0.19939738
C                 -0.00273719    0.55295479    0.55976496
H                 -0.00823479    0.73198482    1.61466659
C                  0.00168687    1.59838303   -0.30257303
H                  0.00718954    1.42562383   -1.35851972
H                 -0.00085738    2.86210452    0.17229690
$end

$rem
Jobtype		OPT
!EXCHANGE            HF
!CORRELATION         CI
EXCHANGE            BHHLYP !50% HF +  50% Becke88 exchange
BASIS               6-31+G*
UNRESTRICTED        True
MAX_SCF_CYCLES      500
SYM_IGNORE          True
SCF_Algorithm       DIIS
$end

$molecule
read
$end

$rem
Jobtype	FREQ
EXCHANGE            BHHLYP
BASIS               6-31+G*
$end
--------------------------------------------------------------

             Standard Nuclear Orientation (Angstroms)
    I     Atom           X                Y                Z
 ----------------------------------------------------------------
    1      C       0.0001207300    -0.8918168800     0.0266359100
    2      H       0.5737048200    -1.7064860000     0.9375772700
    3      H       0.6975979800    -0.9442122800    -1.1281561100
    4      H      -1.2697095500    -1.2908211500    -0.1993973800
    5      C      -0.0027371900     0.5529547900     0.5597649600
    6      H      -0.0082347900     0.7319848200     1.6146665900
    7      C       0.0016868700     1.5983830300    -0.3025730300
    8      H       0.0071895400     1.4256238300    -1.3585197200
    9      H      -0.0008573800     2.8621045200     0.1722969000
 ----------------------------------------------------------------

   11    -117.7046713166      4.20e-09  Convergence criterion met
 Total energy in the final basis set =     -117.7046713166

                    Orbital Energies (a.u.)
 --------------------------------------------------------------

 Alpha MOs
 -- Occupied --
-10.6672 -10.6184 -10.6147  -0.8910  -0.7432  -0.6346  -0.5047  -0.4826
 -0.4392  -0.4054  -0.3953  -0.3021

 Beta MOs
 -- Occupied --
-10.6672 -10.6184 -10.6147  -0.8910  -0.7432  -0.6346  -0.5047  -0.4826
 -0.4392  -0.4054  -0.3953  -0.3021

          Ground-State Mulliken Net Atomic Charges

     Atom                 Charge (a.u.)    Spin (a.u.)
  --------------------------------------------------------
      1 C                    -0.666198       0.000000
      2 H                     0.160868      -0.000000
      3 H                     0.166655      -0.000000
      4 H                     0.174274      -0.000000
      5 C                     0.007093      -0.000000
      6 H                     0.205883       0.000000
      7 C                    -0.405311       0.000000
      8 H                     0.193939      -0.000000
      9 H                     0.162797       0.000000
  --------------------------------------------------------
  Sum of atomic charges =     0.000000

                    Cartesian Multipole Moments
 -----------------------------------------------------------------
    Charge (ESU x 10^10)
                -0.0000
    Dipole Moment (Debye)
         X      -0.0297      Y      -0.1553      Z       0.1015
       Tot       0.1879
    Quadrupole Moments (Debye-Ang)
        XX     -23.0743     XY      -0.0210     YY     -21.4428
        XZ      -0.0201     YZ      -0.0941     ZZ     -19.3189

 Frequency:       568.60                 730.20                 824.36
 Force Cnst:      0.4907                 0.3818                 0.6110
 Red. Mass:       2.5758                 1.2154                 1.5259
 IR Intens:        0.997                  0.575                  0.781
 Frequency:       914.49                 964.40                1096.29
 Force Cnst:      1.3578                 0.6068                 0.8574
 Red. Mass:       2.7557                 1.1073                 1.2108
 IR Intens:        0.668                 56.642                 13.768
 Frequency:      1200.89                1225.18                1236.75
 Force Cnst:      1.1140                 1.1053                 1.0649
 Red. Mass:       1.3111                 1.2498                 1.1816
 IR Intens:       82.582                 46.408                 32.204
 Frequency:      1274.94                1294.64                1304.50
 Force Cnst:      1.0735                 1.0404                 1.0855
 Red. Mass:       1.1209                 1.0535                 1.0827
 IR Intens:       41.725                 64.684                 25.364
 Frequency:      1319.12                1363.57                1463.30
 Force Cnst:      1.1755                 1.2732                 1.6764
 Red. Mass:       1.1465                 1.1623                 1.3288
 IR Intens:       10.095                  8.672                  2.937
 Frequency:      1501.31                1506.92                1548.85
 Force Cnst:      1.4045                 1.4118                 1.8019
 Red. Mass:       1.0576                 1.0552                 1.2749
 IR Intens:        1.291                  1.090                  7.383
 Frequency:      1660.21                3385.97                3395.85
 Force Cnst:      4.8141                 7.3768                 7.3991
 Red. Mass:       2.9644                 1.0921                 1.0890
 IR Intens:        2.156                  3.161                  5.386

 STANDARD THERMODYNAMIC QUANTITIES AT   298.15 K  AND     1.00 ATM

   This Molecule has  0 Imaginary Frequencies
   Zero point vibrational energy:       42.573 kcal/mol

   Atom    1 Element C  Has Mass   12.00000
   Atom    2 Element H  Has Mass    1.00783
   Atom    3 Element H  Has Mass    1.00783
   Atom    4 Element H  Has Mass    1.00783
   Atom    5 Element C  Has Mass   12.00000
   Atom    6 Element H  Has Mass    1.00783
   Atom    7 Element C  Has Mass   12.00000
   Atom    8 Element H  Has Mass    1.00783
   Atom    9 Element H  Has Mass    1.00783
   Molecular Mass:    42.046980 amu
   Principal axes and moments of inertia in amu*Bohr^2:
                             1           2           3
    Eigenvalues --       47.63878   203.01766   233.17972
          X               0.00047    -0.00481     0.99999
          Y               0.99518     0.09803     0.00000
          Z              -0.09803     0.99517     0.00483
   Rotational Symmetry Number is   1
   The Molecule is an Asymmetric Top
   Translational Enthalpy:        0.889 kcal/mol
   Rotational Enthalpy:           0.889 kcal/mol
   Vibrational Enthalpy:         42.944 kcal/mol
   gas constant (RT):             0.592 kcal/mol
   Translational Entropy:        37.135  cal/mol.K
   Rotational Entropy:           22.338  cal/mol.K
   Vibrational Entropy:           1.568  cal/mol.K

   Total Enthalpy:               45.314 kcal/mol
   Total Entropy:                61.041  cal/mol.K
 Total job time:  50.90s(wall), 49.87s(cpu)
        *  Thank you very much for using Q-Chem.  Have a nice day.  *
