 Q-Chem 6.0, Q-Chem, Inc., Pleasanton, CA (2022)
 Q-Chem 6.0.1 for Intel X86 EM64T Linux

User input:
--------------------------------------------------------------
$comment
No symmetry
$end

$molecule
0 1
C                  0.00012073   -0.89181688    0.02663591
F                  0.57370482   -1.70648600    0.93757727
F                  0.69759798   -0.94421228   -1.12815611
F                 -1.26970955   -1.29082115   -0.19939738
C                 -0.00273719    0.55295479    0.55976496
F                 -0.00823479    0.73198482    1.61466659
C                  0.00168687    1.59838303   -0.30257303
F                  0.00718954    1.42562383   -1.35851972
F                 -0.00085738    2.86210452    0.17229690
$end

$rem
Jobtype		OPT
!EXCHANGE            HF
!CORRELATION         CI
EXCHANGE            BHHLYP !50% HF +  50% Becke88 exchange
BASIS               6-31+G*
UNRESTRICTED        True
MAX_SCF_CYCLES      500
SYM_IGNORE          True
SCF_Algorithm       DIIS
$end

$molecule
read
$end

$rem
Jobtype	FREQ
EXCHANGE            BHHLYP
BASIS               6-31+G*
$end
--------------------------------------------------------------

             Standard Nuclear Orientation (Angstroms)
    I     Atom           X                Y                Z
 ----------------------------------------------------------------
    1      C       0.0001207300    -0.8918168800     0.0266359100
    2      F       0.5737048200    -1.7064860000     0.9375772700
    3      F       0.6975979800    -0.9442122800    -1.1281561100
    4      F      -1.2697095500    -1.2908211500    -0.1993973800
    5      C      -0.0027371900     0.5529547900     0.5597649600
    6      F      -0.0082347900     0.7319848200     1.6146665900
    7      C       0.0016868700     1.5983830300    -0.3025730300
    8      F       0.0071895400     1.4256238300    -1.3585197200
    9      F      -0.0008573800     2.8621045200     0.1722969000
 ----------------------------------------------------------------

   13    -712.8705988722      7.22e-09  Convergence criterion met
 Total energy in the final basis set =     -712.8705988722

                    Orbital Energies (a.u.)
 --------------------------------------------------------------

 Alpha MOs
 -- Occupied --
-25.4497 -25.4122 -25.3924 -25.3893 -25.3862 -25.3820 -10.8880 -10.7903
-10.7116  -1.6480  -1.6094  -1.4998  -1.4249  -1.4165  -1.4134  -0.9417
 -0.8661  -0.8311  -0.7937  -0.7716  -0.7542  -0.7277  -0.7164  -0.7068
 -0.6926  -0.6377  -0.5900  -0.5887  -0.5759  -0.5748  -0.5637  -0.5531
 -0.5501  -0.5335  -0.4552  -0.2803

 Beta MOs
 -- Occupied --
-25.4497 -25.4122 -25.3924 -25.3893 -25.3862 -25.3820 -10.8880 -10.7903
-10.7116  -1.6480  -1.6094  -1.4998  -1.4249  -1.4165  -1.4134  -0.9417
 -0.8661  -0.8311  -0.7937  -0.7716  -0.7542  -0.7277  -0.7164  -0.7068
 -0.6926  -0.6377  -0.5900  -0.5887  -0.5759  -0.5748  -0.5637  -0.5531
 -0.5501  -0.5335  -0.4552  -0.2803

          Ground-State Mulliken Net Atomic Charges

     Atom                 Charge (a.u.)    Spin (a.u.)
  --------------------------------------------------------
      1 C                     1.029994       0.000000
      2 F                    -0.346187      -0.000000
      3 F                    -0.348172       0.000000
      4 F                    -0.324452       0.000000
      5 C                     0.012758      -0.000000
      6 F                    -0.108039       0.000000
      7 C                     0.534549       0.000000
      8 F                    -0.060136      -0.000000
      9 F                    -0.390316      -0.000000
  --------------------------------------------------------
  Sum of atomic charges =     0.000000

                    Cartesian Multipole Moments
 -----------------------------------------------------------------
    Charge (ESU x 10^10)
                 0.0000
    Dipole Moment (Debye)
         X      -0.0029      Y       0.7848      Z      -0.3145
       Tot       0.8455
    Quadrupole Moments (Debye-Ang)
        XX     -46.1240     XY      -0.0624     YY     -49.8890
        XZ      -0.0358     YZ      -1.5437     ZZ     -45.9208

 Frequency:      -814.73                -649.15                -575.14
 Force Cnst:      5.6350                 3.7390                 3.2358
 Red. Mass:      14.4085                15.0597                16.6028
 IR Intens:        1.674                  0.322                 19.571
 Frequency:      -308.06                 152.93                 329.56
 Force Cnst:      1.0407                 0.2447                 1.0092
 Red. Mass:      18.6111                17.7571                15.7705
 IR Intens:        3.289                  0.904                  2.163
 Frequency:       337.10                 353.55                 408.36
 Force Cnst:      1.2387                 1.2931                 1.6645
 Red. Mass:      18.5005                17.5577                16.9409
 IR Intens:        3.298                  1.944                  0.791
 Frequency:       458.34                 572.67                 585.29
 Force Cnst:      2.1637                 3.3499                 3.5139
 Red. Mass:      17.4810                17.3368                17.4103
 IR Intens:        8.779                  1.314                  1.104
 Frequency:       689.80                 818.09                 964.08
 Force Cnst:      4.6850                 6.5122                 8.7338
 Red. Mass:      16.7116                16.5149                15.9489
 IR Intens:       27.839                 12.917                216.176
 Frequency:      1186.93                1233.02                1260.80
 Force Cnst:     10.8472                11.5796                12.0252
 Red. Mass:      13.0683                12.9273                12.8396
 IR Intens:      338.273                261.986                170.311
 Frequency:      1465.94                2750.35                2865.64
 Force Cnst:     15.7050                61.9234                65.7435
 Red. Mass:      12.4037                13.8940                13.5881
 IR Intens:      275.878                703.880                 16.355

 STANDARD THERMODYNAMIC QUANTITIES AT   298.15 K  AND     1.00 ATM

   This Molecule has  4 Imaginary Frequencies
   Zero point vibrational energy:       23.491 kcal/mol

   Atom    1 Element C  Has Mass   12.00000
   Atom    2 Element F  Has Mass   18.99840
   Atom    3 Element F  Has Mass   18.99840
   Atom    4 Element F  Has Mass   18.99840
   Atom    5 Element C  Has Mass   12.00000
   Atom    6 Element F  Has Mass   18.99840
   Atom    7 Element C  Has Mass   12.00000
   Atom    8 Element F  Has Mass   18.99840
   Atom    9 Element F  Has Mass   18.99840
   Molecular Mass:   149.990400 amu
   Principal axes and moments of inertia in amu*Bohr^2:
                             1           2           3
    Eigenvalues --      631.39745  1395.41503  1697.36269
          X               0.00033    -0.00452     0.99999
          Y               0.99797     0.06368    -0.00004
          Z              -0.06368     0.99796     0.00453
   Rotational Symmetry Number is   1
   The Molecule is an Asymmetric Top
   Translational Enthalpy:        0.889 kcal/mol
   Rotational Enthalpy:           0.889 kcal/mol
   Vibrational Enthalpy:         25.337 kcal/mol
   gas constant (RT):             0.592 kcal/mol
   Translational Entropy:        40.926  cal/mol.K
   Rotational Entropy:           28.793  cal/mol.K
   Vibrational Entropy:           9.697  cal/mol.K

   Total Enthalpy:               27.707 kcal/mol
   Total Entropy:                79.416  cal/mol.K
 Total job time:  341.37s(wall), 335.61s(cpu)
        *  Thank you very much for using Q-Chem.  Have a nice day.  *
