 Q-Chem 6.0, Q-Chem, Inc., Pleasanton, CA (2022)
 Q-Chem 6.0.1 for Intel X86 EM64T Linux

User input:
--------------------------------------------------------------
$molecule
0 1
C       0.0110735532    -0.0109483917     0.0000509020
C       0.0231751238    -1.5690366131     0.0076104210
C       1.5812805708    -1.5569419259     0.0061102585
C       1.5691790832     0.0011462899    -0.0014488761
F       2.1005930974     0.5365443556    -1.0923628938
F       2.1026841577     0.5471356457     1.0831754485
F       2.1229540480    -2.0841118548     1.0959864860
F       2.1210172902    -2.0946808434    -1.0795512354
F      -0.5082386463    -2.1044344374     1.0985246459
F      -0.5103302057    -2.1150262451    -1.0770136879
F      -0.5305996057     0.5162212154    -1.0898255972
F      -0.5286634666     0.5267908047     1.0857121286
$end

$rem
Jobtype		OPT
!EXCHANGE            HF
!CORRELATION         CI
EXCHANGE            BHHLYP !50% HF +  50% Becke88 exchange
BASIS               6-31+G*
UNRESTRICTED        True
MAX_SCF_CYCLES      500
SYM_IGNORE          True
SCF_Algorithm       DIIS
$end

--------------------------------------------------------------

   10    -950.7737081175      4.74e-09  Convergence criterion met
 Total energy in the final basis set =     -950.7737081175
    4    -950.7737081335      7.06e-09  Convergence criterion met
 Total energy in the final basis set =     -950.7737081335
 Final energy is -950.773708133465
	**  OPTIMIZATION CONVERGED  **
 Total job time:  22.81s(wall), 172.04s(cpu)
        *  Thank you very much for using Q-Chem.  Have a nice day.  *
 Q-Chem 6.0, Q-Chem, Inc., Pleasanton, CA (2022)
 Q-Chem 6.0.1 for Intel X86 EM64T Linux

User input:
--------------------------------------------------------------

$molecule
read
$end

$rem
Jobtype	FREQ
EXCHANGE            BHHLYP
BASIS               6-31+G*
$end
--------------------------------------------------------------

             Standard Nuclear Orientation (Angstroms)
    I     Atom           X                Y                Z
 ----------------------------------------------------------------
    1      C       0.8658270025    -0.6814216262     0.0000279242
    2      C       0.6814215318     0.8658273595    -0.0000341162
    3      C      -0.8658270025     0.6814216262    -0.0000279242
    4      C      -0.6814215318    -0.8658273595     0.0000341162
    5      F      -1.1507267034    -1.4621122850    -1.0877693758
    6      F      -1.1508227444    -1.4620676693     1.0878178145
    7      F      -1.4620465403     1.1508198502     1.0877724857
    8      F      -1.4621377259     1.1507262626    -1.0878138247
    9      F       1.1507267034     1.4621122850     1.0877693758
   10      F       1.1508227444     1.4620676693    -1.0878178145
   11      F       1.4620465403    -1.1508198502    -1.0877724857
   12      F       1.4621377259    -1.1507262626     1.0878138247
 ----------------------------------------------------------------

   12    -950.7735438449      9.25e-10  Convergence criterion met
 Total energy in the final basis set =     -950.7735438449

             Orbital Energies (a.u.) and Symmetries
 --------------------------------------------------------------

 Alpha MOs, Restricted
 -- Occupied --
-25.408 -25.407 -25.407 -25.407 -25.407 -25.407 -25.407 -25.407
  1 Au    1 Ag    2 Ag    3 Ag    2 Au    3 Au    4 Au    4 Ag
-10.839 -10.838 -10.838 -10.838  -1.518  -1.498  -1.498  -1.483
  5 Ag    5 Au    6 Au    6 Ag    7 Ag    7 Au    8 Au    8 Ag
 -1.447  -1.436  -1.436  -1.426  -1.051  -0.861  -0.861  -0.783
  9 Au    9 Ag   10 Ag   10 Au   11 Ag   11 Au   12 Au   12 Ag
 -0.763  -0.753  -0.746  -0.712  -0.712  -0.707  -0.707  -0.680
 13 Ag   14 Ag   13 Au   14 Au   15 Au   15 Ag   16 Ag   16 Au
 -0.618  -0.618  -0.612  -0.608  -0.605  -0.595  -0.592  -0.592
 17 Au   18 Au   19 Au   17 Ag   18 Ag   19 Ag   20 Ag   21 Ag
 -0.580  -0.565  -0.557  -0.557  -0.549  -0.487  -0.487  -0.423
 20 Au   21 Au   22 Ag   23 Ag   22 Au   23 Au   24 Au   24 Ag

 Beta MOs, Restricted
 -- Occupied --
-25.408 -25.407 -25.407 -25.407 -25.407 -25.407 -25.407 -25.407
  1 Au    1 Ag    2 Ag    3 Ag    2 Au    3 Au    4 Au    4 Ag
-10.839 -10.838 -10.838 -10.838  -1.518  -1.498  -1.498  -1.483
  5 Ag    5 Au    6 Au    6 Ag    7 Ag    7 Au    8 Au    8 Ag
 -1.447  -1.436  -1.436  -1.426  -1.051  -0.861  -0.861  -0.783
  9 Au    9 Ag   10 Ag   10 Au   11 Ag   11 Au   12 Au   12 Ag
 -0.763  -0.753  -0.746  -0.712  -0.712  -0.707  -0.707  -0.680
 13 Ag   14 Ag   13 Au   14 Au   15 Au   15 Ag   16 Ag   16 Au
 -0.618  -0.618  -0.612  -0.608  -0.605  -0.595  -0.592  -0.592
 17 Au   18 Au   19 Au   17 Ag   18 Ag   19 Ag   20 Ag   21 Ag
 -0.580  -0.565  -0.557  -0.557  -0.549  -0.487  -0.487  -0.423
 20 Au   21 Au   22 Ag   23 Ag   22 Au   23 Au   24 Au   24 Ag

          Ground-State Mulliken Net Atomic Charges

     Atom                 Charge (a.u.)
  ----------------------------------------
      1 C                     0.628062
      2 C                     0.628061
      3 C                     0.628062
      4 C                     0.628061
      5 F                    -0.314025
      6 F                    -0.314037
      7 F                    -0.314027
      8 F                    -0.314034
      9 F                    -0.314025
     10 F                    -0.314037
     11 F                    -0.314027
     12 F                    -0.314034
  ----------------------------------------
  Sum of atomic charges =     0.000000

                    Cartesian Multipole Moments
 -----------------------------------------------------------------
    Charge (ESU x 10^10)
                 0.0000
    Dipole Moment (Debye)
         X       0.0000      Y      -0.0000      Z       0.0000
       Tot       0.0000
    Quadrupole Moments (Debye-Ang)
        XX     -64.2773     XY       0.0000     YY     -64.2773
        XZ       0.0000     YZ      -0.0003     ZZ     -66.1955

 Frequency:       -31.31                 199.01                 199.07
 Force Cnst:      0.0108                 0.4386                 0.4388
 Red. Mass:      18.7850                18.7945                18.7946
 IR Intens:        0.000                  0.000                  0.000
 Frequency:       208.37                 229.38                 275.99
 Force Cnst:      0.4640                 0.5890                 0.8526
 Red. Mass:      18.1373                18.9984                18.9983
 IR Intens:        6.490                  0.000                  0.000
 Frequency:       279.81                 297.91                 298.10
 Force Cnst:      0.8716                 0.9636                 0.9650
 Red. Mass:      18.8938                18.4286                18.4299
 IR Intens:        0.000                  2.555                  2.554
 Frequency:       347.92                 374.27                 467.45
 Force Cnst:      1.3171                 1.5392                 2.2139
 Red. Mass:      18.4671                18.6490                17.1959
 IR Intens:        0.000                  0.000                  0.000
 Frequency:       467.49                 576.37                 576.40
 Force Cnst:      2.2142                 3.2927                 3.2928
 Red. Mass:      17.1961                16.8224                16.8218
 IR Intens:        0.000                 36.346                 36.359
 Frequency:       630.14                 684.05                 731.32
 Force Cnst:      4.1578                 4.8255                 5.5967
 Red. Mass:      17.7724                17.5034                17.7613
 IR Intens:        0.000                  0.000                  0.000
 Frequency:       916.27                1016.23                1016.54
 Force Cnst:      6.1622                 8.5711                 8.5789
 Red. Mass:      12.4577                14.0865                14.0908
 IR Intens:        0.000                239.203                239.654
 Frequency:      1095.82                1306.52                1306.63
 Force Cnst:      8.5199                13.3475                13.3496
 Red. Mass:      12.0421                13.2714                13.2712
 IR Intens:        0.000                  0.000                  0.000
 Frequency:      1331.21                1338.77                1373.18
 Force Cnst:     14.2119                13.6567                14.0444
 Red. Mass:      13.6117                12.9326                12.6415
 IR Intens:      760.869                  0.000                  0.000
 Frequency:      1421.31                1422.73                1515.13
 Force Cnst:     14.9015                14.9270                17.1900
 Red. Mass:      12.5198                12.5163                12.7094
 IR Intens:      112.109                111.643                  0.000

 STANDARD THERMODYNAMIC QUANTITIES AT   298.15 K  AND     1.00 ATM

   This Molecule has  1 Imaginary Frequencies
   Zero point vibrational energy:       31.312 kcal/mol

   Atom    1 Element C  Has Mass   12.00000
   Atom    2 Element C  Has Mass   12.00000
   Atom    3 Element C  Has Mass   12.00000
   Atom    4 Element C  Has Mass   12.00000
   Atom    5 Element F  Has Mass   18.99840
   Atom    6 Element F  Has Mass   18.99840
   Atom    7 Element F  Has Mass   18.99840
   Atom    8 Element F  Has Mass   18.99840
   Atom    9 Element F  Has Mass   18.99840
   Atom   10 Element F  Has Mass   18.99840
   Atom   11 Element F  Has Mass   18.99840
   Atom   12 Element F  Has Mass   18.99840
   Molecular Mass:   199.987200 amu
   Principal axes and moments of inertia in amu*Bohr^2:
                             1           2           3
    Eigenvalues --     1685.79323  1685.79592  2087.10851
          X               1.00000    -0.00092    -0.00000
          Y               0.00092     1.00000    -0.00000
          Z               0.00000     0.00000     1.00000
   Rotational Symmetry Number is   2
   The Molecule is an Asymmetric Top
   Translational Enthalpy:        0.889 kcal/mol
   Rotational Enthalpy:           0.889 kcal/mol
   Vibrational Enthalpy:         35.110 kcal/mol
   gas constant (RT):             0.592 kcal/mol
   Translational Entropy:        41.784  cal/mol.K
   Rotational Entropy:           28.785  cal/mol.K
   Vibrational Entropy:          20.417  cal/mol.K

   Total Enthalpy:               37.480 kcal/mol
   Total Entropy:                90.985  cal/mol.K
 Total job time:  125.62s(wall), 965.23s(cpu)
        *  Thank you very much for using Q-Chem.  Have a nice day.  *
